# vtk DataFile Version 2.0
Square plate test
ASCII
DATASET UNSTRUCTURED_GRID
POINTS 726 float
1.75137 3.16286 2.98503
1.62742 2.7472 2.97354
1.75922 2.74471 2.99076
1.6077 3.16781 2.96784
1.74605 2.74486 3.31856
1.61371 2.74734 3.33009
1.73693 3.16268 3.31238
1.5927 3.16777 3.32412
1.88891 2.74129 3.00616
1.88998 3.15661 3.00115
1.87628 2.74143 3.30718
1.87611 3.15625 3.30104
1.83186 2.74505 2.6708
1.82649 3.16418 2.6658
1.95988 2.74204 2.71337
1.9621 3.15889 2.70974
1.70193 2.74726 2.62477
1.68633 3.16832 2.61963
1.61271 2.74724 3.15144
1.6937 2.74609 2.98235
1.61754 2.95753 2.97069
1.745 2.7447 3.1543
1.75507 2.95388 2.98789
1.59194 3.16771 3.14557
1.68045 3.16556 2.97657
1.73631 3.16256 3.14831
1.68026 2.74624 3.32426
1.74126 2.95387 3.31547
1.60319 2.95759 3.3271
1.66573 3.16545 3.31816
1.82421 2.74311 2.99871
1.82102 3.15984 2.99322
1.87516 2.7412 3.15635
1.88912 2.9491 3.00362
1.87559 3.15607 3.15073
1.81131 2.74325 3.3129
1.80687 3.15957 3.3067
1.87587 2.94901 3.3041
1.78831 2.74485 2.82918
1.896 2.74363 2.69253
1.82895 2.95467 2.66829
1.7816 3.16345 2.82378
1.89462 3.16163 2.68802
1.91725 2.74161 2.85804
1.96069 2.95056 2.71149
1.91894 3.15763 2.8537
1.65733 2.74722 2.79759
1.76723 2.74627 2.6482
1.69408 2.9578 2.6222
1.63937 3.16804 2.79213
1.75723 3.16644 2.64303
1.59789 3.37806 2.965
1.74791 3.37176 2.98218
1.73282 3.37139 3.30929
1.58222 3.37791 3.32114
1.89118 3.36396 2.99872
1.87669 3.36332 3.29798
1.82426 3.37363 2.66333
1.96381 3.36712 2.70805
1.67862 3.37884 2.61706
1.67924 2.7461 3.15294
1.60231 2.9575 3.1485
1.68693 2.95588 2.97946
1.74043 2.95373 3.1513
1.66505 3.16536 3.14696
1.67285 2.95591 3.32121
1.81022 2.74305 3.15546
1.82233 2.9516 2.99595
1.8063 3.15943 3.14958
1.87504 2.9488 3.15351
1.80881 2.95155 3.30979
1.85292 2.74333 2.84396
1.78472 2.95422 2.82647
1.89504 2.95271 2.69024
1.85061 3.16064 2.83894
1.91777 2.94975 2.85582
1.72319 2.74616 2.81371
1.64831 2.95765 2.79486
1.76208 2.95639 2.64561
1.71137 3.16595 2.80819
1.58158 3.37787 3.14263
1.67412 3.37518 2.97369
1.73242 3.3713 3.14532
1.65874 3.37493 3.31511
1.82001 3.36796 2.99052
1.87647 3.36317 3.14796
1.80522 3.36746 3.3036
1.77871 3.3726 2.82111
1.89447 3.37047 2.68583
1.92042 3.36538 2.85163
1.63047 3.37841 2.78941
1.75253 3.37646 2.64044
1.67201 2.9558 3.14995
1.80798 2.95138 3.15251
1.85148 2.95208 2.84143
1.71713 2.9561 2.81095
1.65824 3.37487 3.14397
1.80491 3.36734 3.14666
1.85002 3.36909 2.83647
1.70576 3.37575 2.80544
1.66084 2.74772 3.68493
1.79229 2.74561 3.64435
1.64168 3.16829 3.67905
1.78342 3.16389 3.63808
1.92185 2.74265 3.60547
1.9206 3.15828 3.59863
1.7269 2.74678 3.66437
1.62991 2.74751 3.50831
1.65123 2.95803 3.68199
1.76195 2.74517 3.48232
1.78764 2.95484 3.64121
1.71335 3.16629 3.6583
1.60945 3.16797 3.50234
1.75278 3.16315 3.47603
1.85721 2.74422 3.62475
1.85234 3.16119 3.61823
1.89195 2.74193 3.45734
1.92092 2.95061 3.60207
1.89122 3.15702 3.45078
1.63215 3.37852 3.67611
1.77941 3.37286 3.63493
1.92059 3.3658 3.59519
1.6963 2.74647 3.49513
1.71999 2.95659 3.66134
1.61966 2.95777 3.50533
1.75714 2.95426 3.47918
1.68199 3.16578 3.489
1.8271 2.74365 3.46975
1.85451 2.95282 3.6215
1.82235 3.16019 3.46333
1.89126 2.94964 3.45406
1.70685 3.37593 3.65527
1.59926 3.37814 3.49936
1.74864 3.37194 3.47289
1.85044 3.36943 3.61496
1.8915 3.36425 3.44749
1.689 2.95619 3.49207
1.82444 2.95205 3.46654
1.67511 3.3753 3.48593
1.82053 3.3682 3.46012
1.5259 2.7488 3.72811
1.47738 2.74864 3.34245
1.49158 3.17069 3.72269
1.4389 3.17055 3.33691
1.49161 2.74852 2.95488
1.45441 3.17053 2.94956
1.5939 2.7484 3.70614
1.49408 2.74871 3.53616
1.50908 2.95974 3.7254
1.54616 2.74815 3.33612
1.45854 2.95959 3.33968
1.56791 3.16979 3.70047
1.45701 3.17061 3.53063
1.51728 3.16951 3.33035
1.47638 2.74857 3.14827
1.43784 3.17052 3.1428
1.56014 2.74802 2.96437
1.47339 2.95951 2.95222
1.53254 3.16951 2.95884
1.47376 3.38163 3.71997
1.41887 3.38151 3.33414
1.43504 3.38154 2.9469
1.56258 2.74826 3.52195
1.58103 2.9591 3.7033
1.47592 2.95966 3.53339
1.53188 2.95884 3.33323
1.53463 3.16962 3.51618
1.54517 2.74807 3.14986
1.45751 2.95954 3.14553
1.51639 3.16946 3.14417
1.54649 2.95877 2.9616
1.55466 3.38046 3.69763
1.43773 3.38156 3.52786
1.50251 3.38016 3.32746
1.41778 3.38151 3.14007
1.51845 3.38024 2.95608
1.54875 2.95895 3.51906
1.53094 2.95878 3.14701
1.52036 3.38028 3.51329
1.50168 3.38015 3.14133
1.56845 2.74844 2.57552
1.53765 3.17059 2.57071
1.5225 2.74847 2.76354
1.63574 2.74799 2.60053
1.55336 2.9595 2.57312
1.48791 3.17055 2.75844
1.6133 3.16974 2.59554
1.52163 3.38169 2.56831
1.59051 2.748 2.78086
1.50555 2.9595 2.76099
1.62462 2.95886 2.59804
1.56507 3.16961 2.77556
1.46991 3.38161 2.75589
1.60188 3.38062 2.59305
1.57792 2.9588 2.77821
1.55209 3.38041 2.77292
1.52422 2.32659 2.96019
1.51113 2.32676 3.34799
1.63489 2.32651 3.33605
1.64743 2.32627 2.97924
1.75786 2.32582 3.32477
1.76984 2.32549 2.99657
1.83989 2.32527 2.67594
1.71809 2.32606 2.62991
1.59558 2.32643 2.58033
1.49505 2.53769 3.34522
1.50868 2.53754 2.95753
1.63738 2.53679 2.97639
1.62427 2.53699 3.33307
1.51012 2.32668 3.15373
1.58595 2.32648 2.96989
1.57313 2.32668 3.34189
1.63367 2.32638 3.1573
1.76407 2.53528 2.99365
1.7515 2.53554 3.32166
1.75641 2.32563 3.16035
1.69645 2.32623 3.33037
1.70871 2.32594 2.98816
1.83543 2.53527 2.67335
1.70992 2.53668 2.62734
1.67572 2.32616 2.80304
1.79779 2.32537 2.83469
1.77906 2.32573 2.65341
1.58263 2.53741 2.57792
1.55289 2.32651 2.76864
1.65694 2.3263 2.60552
1.55997 2.53744 3.33901
1.49405 2.53761 3.151
1.57334 2.53726 2.96713
1.62316 2.53687 3.15437
1.57202 2.32658 3.15554
1.70092 2.53613 2.98525
1.75025 2.53537 3.15732
1.68808 2.53636 3.32731
1.69512 2.32607 3.15893
1.66645 2.53673 2.80032
1.79259 2.53526 2.83191
1.77284 2.53606 2.6508
1.73683 2.32583 2.81925
1.5384 2.53747 2.76609
1.64655 2.53713 2.60303
1.61442 2.32639 2.78615
1.55892 2.53734 3.1527
1.6869 2.53622 3.15593
1.72971 2.53608 2.81647
1.60272 2.53719 2.7835
1.89183 2.32415 3.01161
1.88041 2.32456 3.31342
1.96131 2.32399 2.71775
1.88971 2.53303 3.00881
1.87768 2.53333 3.31029
1.81916 2.32527 3.31915
1.83086 2.3249 3.00441
1.87872 2.32431 3.16223
1.95999 2.53321 2.71544
1.90063 2.3247 2.69742
1.91945 2.32406 2.86297
1.82696 2.53425 3.00153
1.87628 2.53309 3.15924
1.81467 2.53453 3.31601
1.8176 2.32505 3.16148
1.89778 2.53432 2.69491
1.9177 2.53309 2.86041
1.85865 2.32479 2.84929
1.81334 2.53432 3.15845
1.85522 2.53426 2.84658
1.68033 2.3268 3.69081
1.80374 2.32629 3.65058
1.92676 2.32529 3.61212
1.67053 2.53732 3.68787
1.79759 2.53612 3.64747
1.7421 2.32659 3.67043
1.65061 2.32665 3.51428
1.77377 2.32604 3.48859
1.9237 2.53426 3.60882
1.86528 2.32586 3.63117
1.89653 2.32489 3.46384
1.73423 2.5368 3.6674
1.64022 2.53714 3.5113
1.76742 2.5358 3.48545
1.71226 2.3264 3.50127
1.86071 2.53528 3.62798
1.8936 2.53373 3.4606
1.83518 2.32554 3.47614
1.704 2.53656 3.4982
1.83058 2.53486 3.47295
1.55623 2.32694 3.73354
1.54173 2.53787 3.73083
1.61839 2.32691 3.71181
1.52668 2.32685 3.54169
1.6064 2.53767 3.70898
1.51112 2.53778 3.53892
1.58876 2.32679 3.52772
1.57597 2.53755 3.52484
2.01774 2.73727 3.02007
2.00564 2.73736 3.29565
2.01364 2.32235 3.02469
2.00278 2.32283 3.30177
2.0871 2.73849 2.75327
2.08257 2.32232 2.75613
2.02652 3.14973 3.01649
2.01319 3.14916 3.28977
2.09577 3.15301 2.75219
1.9534 2.73933 3.01324
2.01491 2.53022 3.0222
2.00445 2.73707 3.15757
2.00343 2.53055 3.29867
1.94103 2.73945 3.30143
1.95275 2.32329 3.01831
2.00086 2.32251 3.16299
1.94161 2.32374 3.30762
2.04534 2.7378 2.88476
2.08415 2.53068 2.7544
2.02356 2.74031 2.73354
2.04094 2.3223 2.88852
2.02195 2.32319 2.73723
2.02174 2.9437 3.01819
1.95842 3.15322 3.00889
2.01278 3.14893 3.15279
2.00902 2.94349 3.29269
1.94482 3.15276 3.2954
2.09109 2.94589 2.75258
2.05423 3.15121 2.88244
2.02909 3.156 2.73109
1.95235 2.53167 3.01565
1.93988 2.73918 3.15703
2.00187 2.53024 3.16017
1.94059 2.53199 3.3045
1.93981 2.32345 3.1627
1.98137 2.73975 2.87158
2.04239 2.5304 2.8864
2.0221 2.53198 2.73518
1.98021 2.32322 2.87597
1.95555 2.94646 3.011
2.00822 2.94322 3.15513
1.94436 3.15256 3.15179
1.94256 2.9463 3.2984
2.04942 2.94468 2.88348
2.026 2.94827 2.73221
1.98675 3.15447 2.86817
1.93911 2.53171 3.15979
1.98008 2.53179 2.87361
1.94175 2.94607 3.15437
1.98371 2.94726 2.86979
2.03169 3.35555 3.01487
2.01774 3.35461 3.28686
2.10079 3.36 2.75196
1.96166 3.35981 3.00683
2.01774 3.35441 3.1505
1.94745 3.35902 3.29241
2.05943 3.35756 2.88152
2.03251 3.36361 2.73007
1.94734 3.35885 3.14924
1.99015 3.36152 2.86663
2.05058 2.73913 3.56754
2.04962 2.32389 3.5747
2.05579 3.15205 3.55993
1.98628 2.74094 3.58642
2.04939 2.5319 3.57119
2.02108 2.73808 3.4328
1.98821 2.32462 3.59332
2.01912 2.3233 3.43951
2.05283 2.94578 3.56377
1.98836 3.15521 3.57922
2.02758 3.15026 3.42597
1.98658 2.53312 3.58992
1.95659 2.74005 3.44503
2.01935 2.53112 3.43618
1.95784 2.32413 3.45164
1.98699 2.94825 3.58285
2.02395 2.94438 3.42939
1.95957 3.15369 3.43834
1.95651 2.53247 3.44835
1.95773 2.94706 3.44169
2.0591 3.35812 3.55605
1.99007 3.36201 3.57557
2.03158 3.35592 3.42253
1.96177 3.36014 3.43497
1.9607 2.74543 2.36865
2.08687 2.74279 2.44003
1.96508 2.32507 2.37288
2.08667 2.32384 2.44319
1.83319 2.74733 2.29328
1.84323 2.32587 2.2976
1.95827 3.16558 2.3646
2.08966 3.16121 2.43783
1.82364 3.16888 2.28896
1.96257 2.53528 2.37073
1.88946 2.74526 2.51687
2.02389 2.74419 2.40487
2.08634 2.53341 2.44145
2.01652 2.74247 2.57357
1.89578 2.32518 2.52159
2.0259 2.32451 2.40873
2.01714 2.32393 2.57735
1.83812 2.53658 2.29544
1.76072 2.7473 2.45627
1.89718 2.74648 2.33143
1.77407 2.32597 2.46104
1.9042 2.32552 2.33579
1.95932 2.95552 2.36661
[...]
POINT_DATA 726
SCALARS pact float 1
LOOKUP_TABLE default
0
0
0
0
0
0
0
0
0
0
0
0
0
0
0
0
0
0
0
0
0
0
0
0
0
0
0
0
0
0
0
0
0
0
0
0
0
0
0
0
0
0
0
0
0
0
0
0
0
0
0
0
0
0
0
0
0
0
0
0
0
0
0
0
0
0
0
0
0
0
0
0
0
0
0
0
0
0
0
0
0
0
0
0
0
0
0
0
0
0
0
0
0
0
0
0
1
0
0
0
0
0
0
0
0
0
0
0
0
0
0
0
0
0
0
0
0
0
0
0
0
0
0
0
0
0
0
0
0
0
0
0
0
0
0
0
0
0
0
0
0
0
0
0
0
0
0
0
0
0
0
0
0
0
0
0
0
0
0
0
0
0
0
0
0
0
0
0
0
0
0
0
0
0
0
0
0
0
0
0
0
0
0
0
0
0
0
0
0
0
0
0
0
0
0
0
0
0
0
0
0
0
0
0
0
0
0
0
0
0
0
0
0
0
0
0
0
0
0
0
0
0
0
0
0
0
0
0
0
0
0
0
0
0
0
0
0
0
0
0
0
0
0
0
0
0
0
0
0
0
0
0
0
0
0
0
0
0
0
0
0
0
0
0
0
0
0
0
0
0
0
0
0
0
0
0
0
0
0
0
0
0
0
0
0
0
0
0
0
0
0
0
0
0
0
0
0
0
0
0
0
0
0
0
0
0
0
0
0
0
0
0
0
0
0
0
0
0
0
0
0
0
0
0
0
0
0
0
0
0
0
0
0
0
0
0
0
0
0
0
0
0
0
0
0
0
0
0
0
0
0
0
0
0
0
0
0
0
0
0
0
0
0
0
0
0
0
0
0
0
0
0
0
0
0
0
0
0
0
0
0
0
0
0
0
0
0
0
0
0
0
0
0
0
0
0
0
0
0
0
0
0
0
0
0
0
0
0
0
0
0
0
0
0
0
0
0
0
0
0
0
0
0
0
0
0
0
0
0
0
0
0
0
0
0
0
0
0
0
0
0
0
0
0
0
0
0
0
0
0
0
0
0
0
0
0
0
0
0
0
0
0
0
0
0
0
0
0
0
0
0
0
0
0
0
0
0
0
0
0
0
0
0
0
0
0
0
0
0
0
0
0
0
0
0
0
0
0
0
0
0
0
0
0
0
0
0
0
0
0
0
0
0
0
0
0
0
0
0
0
0
0
0
0
0
0
0
0
0
0
0
0
0
0
0
0
0
0
0
0
0
0
0
0
0
0
0
0
0
0
0
0
0
0
0
0
0
0
0
0
0
0
0
0
0
0
0
0
0
0
0
0
0
0
0
0
0
0
0
0
0
0
0
0
0
0
0
0
0
0
0
0
0
0
0
0
0
0
0
0
0
0
0
0
0
0
0
0
0
0
0
0
0
0
0
0
0
0
0
0
0
0
0
0
0
0
0
0
0
0
0
0
0
0
0
0
0
0
0
0
0
0
0
0
0
0
0
0
0
0
0
0
0
0
0
0
0
0
0
0
0
0
0
0
0
0
0
0
0
0
0
0
0
0
0
0
0
0
0
0
0
0
0
0
0
0
0
0
0
0
0
0
0
0
0
0
0
0
0
0
0
0
0
0
0
0
0
0
0
0
0
0
0
0
0
0
0
0
0
0
0
0
0
0
0
0

CELL_DATA 256
SCALARS eact float 1
LOOKUP_TABLE default
1
1
1
1
1
1
1
1
1
1
1
1
1
1
1
1
1
1
1
1
1
1
1
1
1
1
1
1
1
1
1
1
0
0
0
0
0
0
0
0
0
0
0
0
0
0
0
0
0
0
0
0
0
0
0
0
0
0
0
0
0
0
0
0
0
0
0
0
0
0
0
0
0
0
0
0
0
0
0
0
0
0
0
0
0
0
0
0
0
0
0
0
0
0
0
0
0
0
0
0
0
0
0
0
0
0
0
0
0
0
0
0
0
0
0
0
0
0
0
0
0
0
0
0
0
0
0
0
0
0
0
0
0
0
0
0
0
0
0
0
0
0
0
0
0
0
0
0
0
0
0
0
0
0
0
0
0
0
0
0
0
0
0
0
0
0
0
0
0
0
0
0
0
0
0
0
0
0
0
0
0
0
0
0
0
0
0
0
0
0
0
0
0
0
0
0
0
0
0
0
0
0
0
0
0
0
0
0
0
0
0
0
0
0
0
0
0
0
0
0
0
0
0
0
0
0
0
0
0
0
0
0
0
0
0
0
0
0
0
0
0
0
0
0
0
0
0
0
0
0
0
0
0
0
0
0
